256
This is the position of the system during the last 1 steps
LJ	6.79914686e+00 6.79293414e+00 2.58046583e-0
LJ	6.79823984 0.77145664 0.7760792
LJ	0.77832296 6.79796127 0.7741929
LJ	0.7793324  0.7712062  0.0048163
LJ	6.79688327e+00 1.01738951e-03 1.54832929e+0
LJ	1.42911606e-03 7.75600431e-01 2.31846194e+0
LJ	0.7756531  6.79534978 2.3228473
LJ	0.77244707 0.77734651 1.5495047
LJ	6.79631524 6.79419253 3.0997424
LJ	6.7976387  0.77583968 3.8658072
LJ	0.77821385 6.79787104 3.8709249
LJ	0.77179765 0.77331869 3.0951595
LJ	4.28883761e-04 9.51845132e-04 4.64628460e+0
LJ	6.79799703 0.77629165 5.4123982
LJ	7.69977041e-01 2.77747039e-03 5.41211906e+0
LJ	0.77573875 0.78193732 4.6427323
LJ	2.01003107e-04 1.54938939e+00 6.79554260e+0
LJ	0.00862032 2.32154523 0.7635528
LJ	0.77636222 1.54255318 0.7702753
LJ	0.77361637 2.32323414 0.0042468
LJ	6.79727226 1.5489567  1.5482272
LJ	1.26667573e-03 2.31947991e+00 2.32435010e+0
LJ	0.76974406 1.55063936 2.3191153
LJ	0.78108428 2.318906   1.5450261
LJ	2.33796286e-03 1.54936269e+00 3.08917576e+0
LJ	3.37611382e-03 2.31481166e+00 3.86728233e+0
LJ	0.77727492 1.54889751 3.8742147
LJ	0.76796046 2.32559963 3.0925885
LJ	0.00523301 1.55166724 4.6474102
LJ	6.79849245 2.32044676 5.4142450
LJ	0.77967301 1.54485628 5.4175055
LJ	0.77600085 2.31763185 4.6442393
LJ	2.19827617e-03 3.09395221e+00 6.79504376e+0
LJ	6.78993443 3.86293152 0.7719136
LJ	0.78027394 3.09666818 0.7705451
LJ	0.77481847 3.8719818  6.7998103
LJ	0.00558222 3.09853436 1.5419506
LJ	2.58096950e-03 3.87386594e+00 2.31987034e+0
LJ	0.7770425  3.09354661 2.3156648
LJ	0.77333154 3.87335229 1.5444419
LJ	6.79417647 3.08977439 3.0921106
LJ	1.21593859e-03 3.86394409e+00 3.86402811e+0
LJ	0.77791615 3.09852004 3.86533  
LJ	0.78488463 3.87080859 3.0953314
LJ	0.00596194 3.09589502 4.6401893
LJ	2.86348151e-03 3.86389873e+00 5.41726615e+0
LJ	0.77916401 3.09802913 5.4192968
LJ	0.77202391 3.86870371 4.6403075
LJ	6.79982130e+00 4.64192314e+00 1.95614010e-0
LJ	5.15391834e-03 5.41755656e+00 7.80073888e-0
LJ	0.77385489 4.64010524 0.7769364
LJ	0.77209243 5.40834986 6.7987060
LJ	7.97644873e-04 4.63956833e+00 1.54326960e+0
LJ	6.7974636  5.41061792 2.3133403
LJ	0.7730643  4.65155843 2.3212120
LJ	0.76949035 5.41686502 1.5499914
LJ	6.79731375 4.64433516 3.0925262
LJ	2.72663250e-03 5.41400848e+00 3.86197641e+0
LJ	0.76945432 4.64828582 3.8703208
LJ	0.77527323 5.41686099 3.0852442
LJ	6.79638515 4.6403516  4.6394126
LJ	6.79789987 5.41107992 5.4087574
LJ	0.78008728 4.63652935 5.4153226
LJ	0.77165228 5.41822411 4.6439243
LJ	1.54725764e+00 1.92246412e-03 6.79739311e+0
LJ	1.5491219  0.76756175 0.7736617
LJ	2.32316177 6.79759463 0.7743045
LJ	2.31875598 0.76821975 6.7978320
LJ	1.54522157 0.00580227 1.5442498
LJ	1.54870917 0.77481021 2.3153430
LJ	2.3272797  6.79850153 2.3258096
LJ	2.31803059 0.77067847 1.5413882
LJ	1.53859171 6.79938217 3.0906933
LJ	1.54084481 0.77056938 3.8667584
LJ	2.3234127  0.00389878 3.8696595
LJ	2.32711294 0.76217661 3.0966018
LJ	1.5436826  6.79838816 4.6420704
LJ	1.5462787  0.7712515  5.4150573
LJ	2.31712596 6.79982688 5.4103007
LJ	2.32700923 0.7747096  4.6421536
LJ	1.54785469 1.54908207 6.7987569
LJ	1.54775663 2.31908968 0.7746542
LJ	2.32214778 1.54756053 0.777446 
LJ	2.32571948e+00 2.31723849e+00 8.45315846e-0
LJ	1.54281218 1.54854217 1.5450070
LJ	1.55265205 2.31885306 2.3131202
LJ	2.3179825  1.55009984 2.3192390
LJ	2.32565732 2.31506438 1.5410842
LJ	1.54810936 1.54728399 3.0979026
LJ	1.53893601 2.32231765 3.8662068
LJ	2.32374009 1.54343334 3.8712402
LJ	2.31805943 2.31743687 3.0858195
LJ	1.54574929 1.55088829 4.6438052
LJ	1.54250311 2.32220871 5.4198241
LJ	2.31853434 1.54227926 5.4216963
LJ	2.31622923 2.31879425 4.6457184
LJ	1.5491906  3.09910572 6.7981787
LJ	1.54891215 3.86565864 0.7712364
LJ	2.32288005 3.09161095 0.7743389
LJ	2.31532720e+00 3.86858960e+00 1.22003033e-0
LJ	1.55079564 3.09949322 1.5485824
LJ	1.53741568 3.86478115 2.3201538
LJ	2.32659657 3.09658233 2.3229758
LJ	2.31738281 3.87017396 1.5501112
LJ	1.55070321 3.09585287 3.0909079
LJ	1.54591803 3.86668064 3.8688853
LJ	2.31693076 3.09102707 3.8717015
LJ	2.31933109 3.87613741 3.0890326
LJ	1.54086637 3.09673135 4.6358706
LJ	1.54423932 3.86651994 5.4127511
LJ	2.32017618 3.09040596 5.4166248
LJ	2.32751757 3.86647241 4.6437675
LJ	1.54715928 4.64055924 6.7972860
LJ	1.54867294 5.40752627 0.7753253
LJ	2.3208051  4.64274597 0.7766579
LJ	2.31646681 5.41366905 6.7907155
LJ	1.54056101 4.6383382  1.5394155
LJ	1.55089433 5.4112098  2.3193221
LJ	2.32213604 4.64665258 2.3254861
LJ	2.32051726 5.41427224 1.5556995
LJ	1.54546496 4.64663711 3.0905064
LJ	1.54064259 5.40617775 3.8654027
LJ	2.3177005  4.63842603 3.8680564
LJ	2.31288561 5.41142898 3.0893413
LJ	1.54631551 4.64291156 4.6398069
LJ	1.53595611 5.41455494 5.4137665
LJ	2.3221375  4.63882052 5.4084330
LJ	2.31792297 5.41491654 4.6452812
LJ	3.09113685 6.79929081 0.0088114
LJ	3.08723534 0.76886316 0.7734306
LJ	3.87417296 6.79594579 0.7775209
LJ	3.86032003e+00 7.74968749e-01 2.22089758e-0
LJ	3.09569847e+00 8.83352240e-04 1.54345110e+0
LJ	3.09110478 0.77717069 2.3280290
LJ	3.862668   6.79694906 2.3269049
LJ	3.86602506 0.77255164 1.5486794
LJ	3.09251988e+00 1.63859325e-03 3.08972321e+0
LJ	3.10270976 0.77815915 3.8621135
LJ	3.86051915 0.00799513 3.8621107
LJ	3.87327409 0.78134641 3.0926291
LJ	3.09630795e+00 7.76369065e-04 4.63902943e+0
LJ	3.09303416 0.77692133 5.4187671
LJ	3.87197991 6.79825613 5.4216031
LJ	3.86829861 0.77124728 4.6418884
LJ	3.09589988 1.5474491  0.0069767
LJ	3.09868629 2.31882985 0.7735232
LJ	3.86899556 1.55052798 0.7733121
LJ	3.86463414e+00 2.31912025e+00 8.67977576e-0
LJ	3.09928927 1.54898526 1.5459938
LJ	3.08308661 2.32841903 2.3193431
LJ	3.8643589  1.54191624 2.3278669
LJ	3.8639479  2.32628948 1.5517608
LJ	3.09345118 1.54386157 3.0966536
LJ	3.09356822 2.32352445 3.8655414
LJ	3.8691948  1.54328137 3.8627258
LJ	3.8710116  2.32553683 3.0900410
LJ	3.09346718 1.55113672 4.6440730
LJ	3.09322975 2.3162548  5.4187400
LJ	3.86843944 1.5494139  5.4066552
LJ	3.86452353 2.32181369 4.6465490
LJ	3.09040007e+00 3.10469272e+00 2.47121043e-0
LJ	3.09653892 3.87053747 0.7694129
LJ	3.874885   3.09191094 0.7748757
LJ	3.87046761 3.87157329 6.7981616
LJ	3.09589722 3.09547828 1.5485028
LJ	3.10053583 3.87660133 2.3255611
LJ	3.86188339 3.09354362 2.3203062
LJ	3.86494033 3.86612751 1.5550502
LJ	3.08978652 3.08980852 3.0883532
LJ	3.09942956 3.86640553 3.8683661
LJ	3.86456327 3.09643406 3.8697121
LJ	3.86226579 3.86457505 3.0933903
LJ	3.09443861 3.09197011 4.6403649
LJ	3.09329152 3.86426707 5.4084311
LJ	3.87220754 3.08929495 5.4077788
LJ	3.87061246 3.86061987 4.6415398
LJ	3.09552025e+00 4.63574518e+00 1.04043247e-0
LJ	3.09766997 5.41759632 0.7716481
LJ	3.86784824 4.63247017 0.7773919
LJ	3.86759989e+00 5.42187565e+00 3.00525460e-0
LJ	3.09346952 4.64100003 1.5471902
LJ	3.08876136 5.41019699 2.3215366
LJ	3.85900973 4.64651999 2.3162617
LJ	3.87114689 5.41559864 1.5542225
LJ	3.09506407 4.64152169 3.0966968
LJ	3.09461406 5.4099885  3.8724746
LJ	3.85587714 4.63901321 3.8748897
LJ	3.86879774 5.4132846  3.0970300
LJ	3.09822911 4.6347824  4.6453979
LJ	3.09182214 5.40977179 5.4175565
LJ	3.86251153 4.64787001 5.4171832
LJ	3.85914046 5.41308832 4.6375590
LJ	4.64491733e+00 7.39435263e-04 1.19614296e-0
LJ	4.6363511  0.77358779 0.7792030
LJ	5.41930684 6.79678662 0.7749301
LJ	5.41073919e+00 7.78809814e-01 2.52941484e-0
LJ	4.64554987 6.79580391 1.5497369
LJ	4.63961221 0.77387402 2.3216266
LJ	5.41846215e+00 4.11171526e-03 2.31460661e+0
LJ	5.41751629 0.77370266 1.5413587
LJ	4.64604619 0.0057236  3.0935674
LJ	4.64650521 0.77173684 3.8653986
LJ	5.4164283  0.00693237 3.8694465
LJ	5.42138998 0.77138877 3.0956794
LJ	4.63479196e+00 2.25968619e-03 4.62752351e+0
LJ	4.63516489 0.77243368 5.4139415
LJ	5.42227546 6.79756093 5.4146558
LJ	5.41519083 0.76670172 4.6361145
LJ	4.63756031 1.54980713 6.7997597
LJ	4.64086109 2.32101655 0.7783348
LJ	5.41461842 1.55289886 0.7756259
LJ	5.41718141 2.31292794 6.7986141
LJ	4.64041374 1.54705942 1.5390856
LJ	4.64875031 2.31860614 2.3250719
LJ	5.40996342 1.54403563 2.3256722
LJ	5.41379167 2.3186891  1.5485238
LJ	4.63629016 1.54579687 3.0872498
LJ	4.64429239 2.32281501 3.8692045
LJ	5.40977675 1.54945797 3.8717627
LJ	5.41169031 2.31675183 3.0908961
LJ	4.64425751 1.54946198 4.6391634
LJ	4.64197439 2.31589765 5.4148882
LJ	5.41114337 1.54453518 5.4167214
LJ	5.41507355 2.31999271 4.6388297
LJ	4.64062378e+00 3.09293053e+00 1.82577677e-0
LJ	4.6378085  3.87067516 0.7706735
LJ	5.41422258 3.09335958 0.7709263
LJ	5.4126261  3.86660828 6.7971405
LJ	4.64155422 3.08871361 1.5491846
LJ	4.64326777 3.86016332 2.3196390
LJ	5.41579573 3.09499841 2.3188506
LJ	5.41813864 3.87191733 1.5439347
LJ	4.64181415 3.09129729 3.0868189
LJ	4.63836289 3.87159035 3.8717238
LJ	5.41356967 3.09770742 3.8644223
LJ	5.42289867 3.87141457 3.0940537
LJ	4.64524732 3.09492811 4.6472269
LJ	4.64677646 3.86813134 5.4220461
LJ	5.40621359 3.09593135 5.4213442
LJ	5.41747608 3.86760973 4.6391023
LJ	4.63685834 4.64140176 6.7995932
LJ	4.63362969 5.41969627 0.7678424
LJ	5.41854893 4.64767823 0.7784051
LJ	5.41376288e+00 5.41841132e+00 3.18544164e-0
LJ	4.64608865 4.64496737 1.5450503
LJ	4.63751001 5.41741332 2.3241625
LJ	5.41703856 4.63454681 2.3259166
LJ	5.41720527 5.4123228  1.5526452
LJ	4.63232657 4.63347795 3.0884249
LJ	4.64332578 5.40854564 3.8673383
LJ	5.42156812 4.64835398 3.8696404
LJ	5.41159285 5.41320785 3.0937280
LJ	4.64632379 4.63774988 4.6407581
LJ	4.63932884 5.4097154  5.4089161
LJ	5.41660145 4.64223375 5.4132937
LJ	5.41328882 5.41445243 4.6400637
